Data file for ethane with only bonds 

   72 atoms
   48 bonds
   24 angles
   0 dihedrals
   0 impropers

   2 atom types
   1 bond types
   1 angle types

   0.000000000    15 xlo xhi
   0.000000000    15 ylo yhi
   0.000000000    15 zlo zhi

Masses

   1  14.5
   2  14.5

Atoms

1	1	2	12.699206	2.383842	9.698456
2	1	1	11.724107	1.549071	10.494099
3	1	1	12.910158	1.816317	8.28546
4	2	2	9.29745	3.858874	11.45893
5	2	1	8.975572	4.182635	12.898472
6	2	1	9.717998	2.390118	11.288532
7	3	2	10.165878	6.802415	6.115209
8	3	1	10.148184	7.796971	7.251542
9	3	1	8.7439	6.434655	5.661478
10	4	2	3.715197	7.559508	1.435008
11	4	1	3.454821	8.299638	2.725403
12	4	1	5.181352	7.110766	1.324726
13	5	2	6.166998	10.248846	10.671731
14	5	1	6.492849	11.322231	11.682856
15	5	1	5.429986	10.824318	9.451573
16	6	2	5.257293	11.168134	0.660343
17	6	1	5.425457	9.674734	0.809298
18	6	1	3.783701	11.555088	0.455562
19	7	2	5.297048	3.556582	12.78298
20	7	1	3.791067	3.56872	12.895146
21	7	1	5.77111	4.157227	11.449701
22	8	2	4.916677	8.64756	6.960425
23	8	1	4.600298	8.086737	8.326474
24	8	1	4.589041	10.146965	6.873355
25	9	2	8.50725	7.843283	9.55673
26	9	1	7.494472	8.114637	8.469828
27	9	1	7.837067	7.697196	10.932467
28	10	2	8.695504	9.160001	2.48704
29	10	1	8.747451	10.320418	1.521927
30	10	1	9.188504	7.857992	1.835223
31	11	2	7.693131	1.162714	7.371208
32	11	1	6.434752	1.058349	8.199639
33	11	1	8.930035	0.700467	8.158316
34	12	2	7.736167	6.101005	13.003277
35	12	1	6.745225	6.004408	11.867755
36	12	1	8.472077	7.45066	13.000256
37	13	2	5.968838	5.495469	7.944178
38	13	1	6.502495	6.217306	9.15862
39	13	1	5.946162	6.407602	6.706988
40	14	2	3.84758	5.358158	8.519407
41	14	1	4.010841	5.777832	9.960909
42	14	1	2.366017	5.218508	8.133909
43	15	2	10.853695	10.42747	7.876283
44	15	1	9.410201	10.829094	7.687261
45	15	1	11.224326	10.328361	9.36489
46	16	2	6.839047	7.831339	3.096057
47	16	1	7.634502	8.387917	4.252854
48	16	1	5.616349	8.706288	2.775722
49	17	2	3.803537	4.291081	3.18617
50	17	1	3.236796	5.667715	3.439925
51	17	1	4.74683	4.281215	1.972397
52	18	2	1.335265	11.547881	4.860662
53	18	1	1.264501	12.985326	5.318321
54	18	1	2.783351	11.110834	4.586476
55	19	2	11.947902	8.406894	5.385125
56	19	1	12.288707	8.214287	3.926543
57	19	1	10.650741	9.212499	5.562655
58	20	2	12.202937	7.067804	9.24592
59	20	1	12.636284	5.723328	8.711784
60	20	1	12.345939	7.143382	10.774638
61	21	2	6.971111	3.425304	4.689608
62	21	1	6.634011	2.548775	5.872304
63	21	1	5.897202	3.335879	3.593312
64	22	2	1.042226	8.217662	7.013157
65	22	1	2.465745	7.888934	6.630747
66	22	1	0.03444	7.334568	6.259729
67	23	2	5.928032	1.14602	3.312526
68	23	1	4.68875	0.329624	3.5925
69	23	1	6.200061	1.264554	1.804186
70	24	2	10.293174	11.178173	11.610046
71	24	1	10.144929	12.557143	11.012408
72	24	1	9.023465	10.746431	12.361431


Bonds

1 1 1 3
2 1 1 2
3 1 4 6
4 1 4 5
5 1 7 9
6 1 7 8
7 1 10 12
8 1 10 11
9 1 13 15
10 1 13 14
11 1 16 18
12 1 16 17
13 1 19 21
14 1 19 20
15 1 22 24
16 1 22 23
17 1 25 27
18 1 25 26
19 1 28 30
20 1 28 29
21 1 31 33
22 1 31 32
23 1 34 36
24 1 34 35
25 1 37 39
26 1 37 38
27 1 40 42
28 1 40 41
29 1 43 45
30 1 43 44
31 1 46 48
32 1 46 47
33 1 49 51
34 1 49 50
35 1 52 54
36 1 52 53
37 1 55 57
38 1 55 56
39 1 58 60
40 1 58 59
41 1 61 63
42 1 61 62
43 1 64 66
44 1 64 65
45 1 67 69
46 1 67 68
47 1 70 72
48 1 70 71

Angles

1 1 2 1 3
2 1 5 4 6
3 1 8 7 9
4 1 11 10 12
5 1 14 13 15
6 1 17 16 18
7 1 20 19 21
8 1 23 22 24
9 1 26 25 27
10 1 29 28 30
11 1 32 31 33
12 1 35 34 36
13 1 38 37 39
14 1 41 40 42
15 1 44 43 45
16 1 47 46 48
17 1 50 49 51
18 1 53 52 54
19 1 56 55 57
20 1 59 58 60
21 1 62 61 63
22 1 65 64 66
23 1 68 67 69
24 1 71 70 72
