Data file for ethane with only bonds 

   72 atoms
   1 atom types

   0.000000000    15 xlo xhi
   0.000000000    15 ylo yhi
   0.000000000    15 zlo zhi

Masses

   1  14.5

Atoms

     1	 1  14.7858 -10.8947 11.727         
     2	 1  15.6227 -11.8937 12.5411        
     3	 1  13.2821 -11.1851 11.796         
     4	 1  8.77741 6.78213 5.52503         
     5	 1  8.77058 8.11943 6.25926         
     6	 1  7.46095 6.02044 5.74395         
     7	 1  9.02466 11.2118 -0.148453       
     8	 1  8.30731 12.5561 0.0995139       
     9	 1  9.40004 10.9916 -1.64082        
    10	 1  1.58961 16.4036 -5.97084        
    11	 1  0.706182 16.2982 -7.25283       
    12	 1  1.42115 15.1017 -5.12527        
    13	 1  5.05039 17.653 12.1067          
    14	 1  4.77665 16.4463 11.2108         
    15	 1  3.94829 18.7157 12.0427         
    16	 1  6.84085 15.9021 6.26846         
    17	 1  7.37074 17.2545 6.78012         
    18	 1  5.42684 16.009 5.67546          
    19	 1  7.27758 1.90228 16.1962         
    20	 1  6.15034 2.68956 15.5409         
    21	 1  6.82684 0.556396 16.7535        
    22	 1  -0.476175 5.04446 15.0518       
    23	 1  0.218598 5.8358 16.1612         
    24	 1  -0.582948 3.53928 15.3878       
    25	 1  2.11113 3.4257 4.47197          
    26	 1  0.672128 3.85455 4.32369        
    27	 1  2.81725 3.13063 3.15929         
    28	 1  9.52353 11.346 -10.1436         
    29	 1  9.01482 12.7746 -10.3953        
    30	 1  10.9219 11.4175 -9.53432        
    31	 1  13.9754 -1.34356 -2.01374       
    32	 1  13.9509 -2.84106 -2.28537       
    33	 1  13.2075 -0.522538 -3.07245      
    34	 1  2.13773 -1.57944 4.51304        
    35	 1  2.22277 -1.23548 6.01388        
    36	 1  0.688325 -1.79194 4.06766       
    37	 1  2.78154 -5.8987 12.0602         
    38	 1  1.97911 -4.58834 11.9849        
    39	 1  2.50244 -6.58225 13.4185        
    40	 1  -4.92478 2.35435 27.1051        
    41	 1  -6.32052 1.89763 26.6743        
    42	 1  -4.6427 1.95671 28.5672         
    43	 1  12.5468 14.7173 2.94878         
    44	 1  11.1206 14.8625 2.42033         
    45	 1  12.6292 14.8812 4.47622         
    46	 1  7.28111 7.48412 -1.98027        
    47	 1  7.98498 7.45269 -3.33175        
    48	 1  6.62265 6.10741 -1.66467        
    49	 1  -1.10771 6.46893 7.48876        
    50	 1  -1.75702 5.1279 7.88086         
    51	 1  -0.259651 7.10553 8.58719       
    52	 1  15.635 12.0786 8.87352          
    53	 1  14.3347 12.4451 8.14639         
    54	 1  16.071 10.6348 8.58264          
    55	 1  12.3884 22.4481 12.7381         
    56	 1  13.6143 23.2844 12.35           
    57	 1  11.3413 23.257 13.4966          
    58	 1  10.9563 3.42222 17.6932         
    59	 1  9.71564 4.30413 17.8913         
    60	 1  12.1123 3.82006 18.6272         
    61	 1  10.45 8.74233 2.35873           
    62	 1  9.00797 8.10094 2.35122         
    63	 1  11.572 7.69725 1.99224          
    64	 1  5.84806 10.1545 2.72585         
    65	 1  5.85542 9.48403 4.11967         
    66	 1  6.00153 9.10531 1.6041          
    67	 1  2.68405 -1.35859 0.599034       
    68	 1  3.72851 -2.38428 0.126236       
    69	 1  2.99365 0.0307748 0.0365352     
    70	 1  16.2997 8.46847 18.3492         
    71	 1  16.7955 9.49549 17.3271         
    72	 1  16.4616 8.95115 19.8016     
