Data file for Propane with only bonds 

   72 atoms
   2 atom types

   0.000000000    15 xlo xhi
   0.000000000    15 ylo yhi
   0.000000000    15 zlo zhi

Masses

   1  14.5
   2  14.5

Atoms

1	2	10.7962	3.59567	0.480347
2	1	11.0765	2.36629	1.3653
3	1	10.0365	4.68791	1.25165
4	2	13.8206	-1.6277	7.75906
5	1	13.1502	-2.96022	7.37027
6	1	13.721	-1.41926	9.29128
7	2	7.12173	3.66294	-1.91511
8	1	5.9244	2.98104	-1.23827
9	1	7.83166	2.7418	-2.93685
10	2	0.980267	7.37233	-6.27092
11	1	0.782444	8.87301	-6.39028
12	1	2.08708	6.80244	-7.14658
13	2	-1.97213	19.539	8.56494
14	1	-1.76029	19.3641	7.05206
15	1	-2.52005	18.2558	9.22093
16	2	-4.66633	12.8553	-0.709479
17	1	-5.79936	12.7358	0.337029
18	1	-3.28805	12.5405	-0.0820802
19	2	-2.47496	6.27786	13.381
20	1	-1.3454	6.18293	12.3401
21	1	-2.48168	7.65119	14.0653
22	2	9.48253	6.93244	6.83408
23	1	9.9226	7.63616	8.12121
24	1	8.63984	7.85997	5.92791
25	2	10.5575	10.2498	10.3636
26	1	9.90315	9.46398	11.5292
27	1	12.0913	10.3897	10.6119
28	2	0.39609	13.0754	3.82163
29	1	0.591609	12.898	2.32132
30	1	1.43199	12.2724	4.59137
31	2	20.4918	-1.13902	12.8249
32	1	21.5862	-2.14848	12.4852
33	1	19.7494	-0.615066	11.5773
34	2	2.00291	2.11966	15.2201
35	1	2.33684	0.668849	15.6253
36	1	2.05357	3.09563	16.3964
37	2	9.02033	-1.51131	9.30044
38	1	10.0478	-1.23484	8.20309
39	1	7.58904	-1.16958	8.85269
40	2	3.94419	3.23034	8.61979
41	1	5.00346	4.31861	8.8391
42	1	4.52669	1.91153	8.05003
43	2	20.4262	4.65085	3.70626
44	1	21.6155	5.56556	4.00544
45	1	19.5245	5.2094	2.58559
46	2	12.2712	9.14918	3.40348
47	1	11.734	9.83495	2.14776
48	1	12.5522	10.1985	4.51196
49	2	7.17666	0.0414783	3.59109
50	1	8.51234	-0.733032	3.56773
51	1	7.41204	1.55272	3.55844
52	2	13.9977	15.956	12.9236
53	1	14.0449	17.4472	13.2687
54	1	12.5604	15.4377	12.7787
55	2	2.59391	11.7671	8.71386
56	1	3.9052	10.997	8.47654
57	1	2.60294	13.1172	7.98241
58	2	18.2127	9.18682	13.3888
59	1	18.0441	8.09381	12.328
60	1	18.1428	10.5991	12.7799
61	2	7.12745	8.05296	0.871046
62	1	6.77225	9.24114	-0.0995261
63	1	7.34561	6.71268	0.0683194
64	2	-8.2407	7.7326	10.2653
65	1	-8.53662	6.49442	11.142
66	1	-9.14123	7.7641	9.01176
67	2	9.03747	2.45181	6.85752
68	1	9.77665	3.21773	5.7454
69	1	8.45126	3.36598	7.94094
70	2	4.26459	10.0552	19.4186
71	1	5.44576	10.4518	18.5299
72	1	3.50184	8.82897	18.8843

